+ 0.5 0 2 cbr 500 ------- 0 0.0 2.1 0 0
- 0.5 0 2 cbr 500 ------- 0 0.0 2.1 0 0
+ 0.505 0 2 cbr 500 ------- 0 0.0 2.1 1 1
- 0.505 0 2 cbr 500 ------- 0 0.0 2.1 1 1
+ 0.51 0 2 cbr 500 ------- 0 0.0 2.1 2 2
- 0.51 0 2 cbr 500 ------- 0 0.0 2.1 2 2
r 0.514 0 2 cbr 500 ------- 0 0.0 2.1 0 0
+ 0.515 0 2 cbr 500 ------- 0 0.0 2.1 3 3
- 0.515 0 2 cbr 500 ------- 0 0.0 2.1 3 3
r 0.519 0 2 cbr 500 ------- 0 0.0 2.1 1 1
+ 0.52 0 2 cbr 500 ------- 0 0.0 2.1 4 4
- 0.52 0 2 cbr 500 ------- 0 0.0 2.1 4 4
r 0.524 0 2 cbr 500 ------- 0 0.0 2.1 2 2
+ 0.525 0 2 cbr 500 ------- 0 0.0 2.1 5 5
- 0.525 0 2 cbr 500 ------- 0 0.0 2.1 5 5
r 0.529 0 2 cbr 500 ------- 0 0.0 2.1 3 3
+ 0.53 0 2 cbr 500 ------- 0 0.0 2.1 6 6
- 0.53 0 2 cbr 500 ------- 0 0.0 2.1 6 6
r 0.534 0 2 cbr 500 ------- 0 0.0 2.1 4 4
+ 0.535 0 2 cbr 500 ------- 0 0.0 2.1 7 7
- 0.535 0 2 cbr 500 ------- 0 0.0 2.1 7 7
r 0.539 0 2 cbr 500 ------- 0 0.0 2.1 5 5
+ 0.54 0 2 cbr 500 ------- 0 0.0 2.1 8 8
- 0.54 0 2 cbr 500 ------- 0 0.0 2.1 8 8
r 0.544 0 2 cbr 500 ------- 0 0.0 2.1 6 6
+ 0.545 0 2 cbr 500 ------- 0 0.0 2.1 9 9
- 0.545 0 2 cbr 500 ------- 0 0.0 2.1 9 9
r 0.549 0 2 cbr 500 ------- 0 0.0 2.1 7 7
+ 0.55 0 2 cbr 500 ------- 0 0.0 2.1 10 10
- 0.55 0 2 cbr 500 ------- 0 0.0 2.1 10 10
r 0.554 0 2 cbr 500 ------- 0 0.0 2.1 8 8
+ 0.555 0 2 cbr 500 ------- 0 0.0 2.1 11 11
- 0.555 0 2 cbr 500 ------- 0 0.0 2.1 11 11
r 0.559 0 2 cbr 500 ------- 0 0.0 2.1 9 9
+ 0.56 0 2 cbr 500 ------- 0 0.0 2.1 12 12
- 0.56 0 2 cbr 500 ------- 0 0.0 2.1 12 12
r 0.564 0 2 cbr 500 ------- 0 0.0 2.1 10 10
+ 0.565 0 2 cbr 500 ------- 0 0.0 2.1 13 13
- 0.565 0 2 cbr 500 ------- 0 0.0 2.1 13 13
r 0.569 0 2 cbr 500 ------- 0 0.0 2.1 11 11
+ 0.57 0 2 cbr 500 ------- 0 0.0 2.1 14 14
- 0.57 0 2 cbr 500 ------- 0 0.0 2.1 14 14
r 0.574 0 2 cbr 500 ------- 0 0.0 2.1 12 12
+ 0.575 0 2 cbr 500 ------- 0 0.0 2.1 15 15
- 0.575 0 2 cbr 500 ------- 0 0.0 2.1 15 15
r 0.579 0 2 cbr 500 ------- 0 0.0 2.1 13 13
+ 0.58 0 2 cbr 500 ------- 0 0.0 2.1 16 16
- 0.58 0 2 cbr 500 ------- 0 0.0 2.1 16 16
r 0.584 0 2 cbr 500 ------- 0 0.0 2.1 14 14
+ 0.585 0 2 cbr 500 ------- 0 0.0 2.1 17 17
- 0.585 0 2 cbr 500 ------- 0 0.0 2.1 17 17
r 0.589 0 2 cbr 500 ------- 0 0.0 2.1 15 15
+ 0.59 0 2 cbr 500 ------- 0 0.0 2.1 18 18
- 0.59 0 2 cbr 500 ------- 0 0.0 2.1 18 18
r 0.594 0 2 cbr 500 ------- 0 0.0 2.1 16 16
+ 0.595 0 2 cbr 500 ------- 0 0.0 2.1 19 19
- 0.595 0 2 cbr 500 ------- 0 0.0 2.1 19 19
r 0.599 0 2 cbr 500 ------- 0 0.0 2.1 17 17
+ 0.6 0 2 cbr 500 ------- 0 0.0 2.1 20 20
- 0.6 0 2 cbr 500 ------- 0 0.0 2.1 20 20
r 0.604 0 2 cbr 500 ------- 0 0.0 2.1 18 18
+ 0.605 0 2 cbr 500 ------- 0 0.0 2.1 21 21
- 0.605 0 2 cbr 500 ------- 0 0.0 2.1 21 21
r 0.609 0 2 cbr 500 ------- 0 0.0 2.1 19 19
+ 0.61 0 2 cbr 500 ------- 0 0.0 2.1 22 22
- 0.61 0 2 cbr 500 ------- 0 0.0 2.1 22 22
r 0.614 0 2 cbr 500 ------- 0 0.0 2.1 20 20
+ 0.615 0 2 cbr 500 ------- 0 0.0 2.1 23 23
- 0.615 0 2 cbr 500 ------- 0 0.0 2.1 23 23
r 0.619 0 2 cbr 500 ------- 0 0.0 2.1 21 21
+ 0.62 0 2 cbr 500 ------- 0 0.0 2.1 24 24
- 0.62 0 2 cbr 500 ------- 0 0.0 2.1 24 24
r 0.624 0 2 cbr 500 ------- 0 0.0 2.1 22 22
+ 0.625 0 2 cbr 500 ------- 0 0.0 2.1 25 25
- 0.625 0 2 cbr 500 ------- 0 0.0 2.1 25 25
r 0.629 0 2 cbr 500 ------- 0 0.0 2.1 23 23
+ 0.63 0 2 cbr 500 ------- 0 0.0 2.1 26 26
- 0.63 0 2 cbr 500 ------- 0 0.0 2.1 26 26
r 0.634 0 2 cbr 500 ------- 0 0.0 2.1 24 24
+ 0.635 0 2 cbr 500 ------- 0 0.0 2.1 27 27
- 0.635 0 2 cbr 500 ------- 0 0.0 2.1 27 27
r 0.639 0 2 cbr 500 ------- 0 0.0 2.1 25 25
+ 0.64 0 2 cbr 500 ------- 0 0.0 2.1 28 28
- 0.64 0 2 cbr 500 ------- 0 0.0 2.1 28 28
r 0.644 0 2 cbr 500 ------- 0 0.0 2.1 26 26
+ 0.645 0 2 cbr 500 ------- 0 0.0 2.1 29 29
- 0.645 0 2 cbr 500 ------- 0 0.0 2.1 29 29
r 0.649 0 2 cbr 500 ------- 0 0.0 2.1 27 27
+ 0.65 0 2 cbr 500 ------- 0 0.0 2.1 30 30
- 0.65 0 2 cbr 500 ------- 0 0.0 2.1 30 30
r 0.654 0 2 cbr 500 ------- 0 0.0 2.1 28 28
+ 0.655 0 2 cbr 500 ------- 0 0.0 2.1 31 31
- 0.655 0 2 cbr 500 ------- 0 0.0 2.1 31 31
r 0.659 0 2 cbr 500 ------- 0 0.0 2.1 29 29
+ 0.66 0 2 cbr 500 ------- 0 0.0 2.1 32 32
- 0.66 0 2 cbr 500 ------- 0 0.0 2.1 32 32
r 0.664 0 2 cbr 500 ------- 0 0.0 2.1 30 30
+ 0.665 0 2 cbr 500 ------- 0 0.0 2.1 33 33
- 0.665 0 2 cbr 500 ------- 0 0.0 2.1 33 33
r 0.669 0 2 cbr 500 ------- 0 0.0 2.1 31 31
+ 0.67 0 2 cbr 500 ------- 0 0.0 2.1 34 34
- 0.67 0 2 cbr 500 ------- 0 0.0 2.1 34 34
r 0.674 0 2 cbr 500 ------- 0 0.0 2.1 32 32
+ 0.675 0 2 cbr 500 ------- 0 0.0 2.1 35 35
- 0.675 0 2 cbr 500 ------- 0 0.0 2.1 35 35
r 0.679 0 2 cbr 500 ------- 0 0.0 2.1 33 33
+ 0.68 0 2 cbr 500 ------- 0 0.0 2.1 36 36
- 0.68 0 2 cbr 500 ------- 0 0.0 2.1 36 36
r 0.684 0 2 cbr 500 ------- 0 0.0 2.1 34 34
+ 0.685 0 2 cbr 500 ------- 0 0.0 2.1 37 37
- 0.685 0 2 cbr 500 ------- 0 0.0 2.1 37 37
r 0.689 0 2 cbr 500 ------- 0 0.0 2.1 35 35
+ 0.69 0 2 cbr 500 ------- 0 0.0 2.1 38 38
- 0.69 0 2 cbr 500 ------- 0 0.0 2.1 38 38
r 0.694 0 2 cbr 500 ------- 0 0.0 2.1 36 36
+ 0.695 0 2 cbr 500 ------- 0 0.0 2.1 39 39
- 0.695 0 2 cbr 500 ------- 0 0.0 2.1 39 39
r 0.699 0 2 cbr 500 ------- 0 0.0 2.1 37 37
+ 0.7 0 2 cbr 500 ------- 0 0.0 2.1 40 40
- 0.7 0 2 cbr 500 ------- 0 0.0 2.1 40 40
r 0.704 0 2 cbr 500 ------- 0 0.0 2.1 38 38
+ 0.705 0 2 cbr 500 ------- 0 0.0 2.1 41 41
- 0.705 0 2 cbr 500 ------- 0 0.0 2.1 41 41
r 0.709 0 2 cbr 500 ------- 0 0.0 2.1 39 39
+ 0.71 0 2 cbr 500 ------- 0 0.0 2.1 42 42
- 0.71 0 2 cbr 500 ------- 0 0.0 2.1 42 42
r 0.714 0 2 cbr 500 ------- 0 0.0 2.1 40 40
+ 0.715 0 2 cbr 500 ------- 0 0.0 2.1 43 43
- 0.715 0 2 cbr 500 ------- 0 0.0 2.1 43 43
r 0.719 0 2 cbr 500 ------- 0 0.0 2.1 41 41
+ 0.72 0 2 cbr 500 ------- 0 0.0 2.1 44 44
- 0.72 0 2 cbr 500 ------- 0 0.0 2.1 44 44
r 0.724 0 2 cbr 500 ------- 0 0.0 2.1 42 42
+ 0.725 0 2 cbr 500 ------- 0 0.0 2.1 45 45
- 0.725 0 2 cbr 500 ------- 0 0.0 2.1 45 45
r 0.729 0 2 cbr 500 ------- 0 0.0 2.1 43 43
+ 0.73 0 2 cbr 500 ------- 0 0.0 2.1 46 46
- 0.73 0 2 cbr 500 ------- 0 0.0 2.1 46 46
r 0.734 0 2 cbr 500 ------- 0 0.0 2.1 44 44
+ 0.735 0 2 cbr 500 ------- 0 0.0 2.1 47 47
- 0.735 0 2 cbr 500 ------- 0 0.0 2.1 47 47
r 0.739 0 2 cbr 500 ------- 0 0.0 2.1 45 45
+ 0.74 0 2 cbr 500 ------- 0 0.0 2.1 48 48
- 0.74 0 2 cbr 500 ------- 0 0.0 2.1 48 48
r 0.744 0 2 cbr 500 ------- 0 0.0 2.1 46 46
+ 0.745 0 2 cbr 500 ------- 0 0.0 2.1 49 49
- 0.745 0 2 cbr 500 ------- 0 0.0 2.1 49 49
r 0.749 0 2 cbr 500 ------- 0 0.0 2.1 47 47
+ 0.75 0 2 cbr 500 ------- 0 0.0 2.1 50 50
- 0.75 0 2 cbr 500 ------- 0 0.0 2.1 50 50
r 0.754 0 2 cbr 500 ------- 0 0.0 2.1 48 48
+ 0.755 0 2 cbr 500 ------- 0 0.0 2.1 51 51
- 0.755 0 2 cbr 500 ------- 0 0.0 2.1 51 51
r 0.759 0 2 cbr 500 ------- 0 0.0 2.1 49 49
+ 0.76 0 2 cbr 500 ------- 0 0.0 2.1 52 52
- 0.76 0 2 cbr 500 ------- 0 0.0 2.1 52 52
r 0.764 0 2 cbr 500 ------- 0 0.0 2.1 50 50
+ 0.765 0 2 cbr 500 ------- 0 0.0 2.1 53 53
- 0.765 0 2 cbr 500 ------- 0 0.0 2.1 53 53
r 0.769 0 2 cbr 500 ------- 0 0.0 2.1 51 51
+ 0.77 0 2 cbr 500 ------- 0 0.0 2.1 54 54
- 0.77 0 2 cbr 500 ------- 0 0.0 2.1 54 54
r 0.774 0 2 cbr 500 ------- 0 0.0 2.1 52 52
+ 0.775 0 2 cbr 500 ------- 0 0.0 2.1 55 55
- 0.775 0 2 cbr 500 ------- 0 0.0 2.1 55 55
r 0.779 0 2 cbr 500 ------- 0 0.0 2.1 53 53
+ 0.78 0 2 cbr 500 ------- 0 0.0 2.1 56 56
- 0.78 0 2 cbr 500 ------- 0 0.0 2.1 56 56
r 0.784 0 2 cbr 500 ------- 0 0.0 2.1 54 54
+ 0.785 0 2 cbr 500 ------- 0 0.0 2.1 57 57
- 0.785 0 2 cbr 500 ------- 0 0.0 2.1 57 57
r 0.789 0 2 cbr 500 ------- 0 0.0 2.1 55 55
+ 0.79 0 2 cbr 500 ------- 0 0.0 2.1 58 58
- 0.79 0 2 cbr 500 ------- 0 0.0 2.1 58 58
r 0.794 0 2 cbr 500 ------- 0 0.0 2.1 56 56
+ 0.795 0 2 cbr 500 ------- 0 0.0 2.1 59 59
- 0.795 0 2 cbr 500 ------- 0 0.0 2.1 59 59
r 0.799 0 2 cbr 500 ------- 0 0.0 2.1 57 57
+ 0.8 0 2 cbr 500 ------- 0 0.0 2.1 60 60
- 0.8 0 2 cbr 500 ------- 0 0.0 2.1 60 60
r 0.804 0 2 cbr 500 ------- 0 0.0 2.1 58 58
+ 0.805 0 2 cbr 500 ------- 0 0.0 2.1 61 61
- 0.805 0 2 cbr 500 ------- 0 0.0 2.1 61 61
r 0.809 0 2 cbr 500 ------- 0 0.0 2.1 59 59
+ 0.81 0 2 cbr 500 ------- 0 0.0 2.1 62 62
- 0.81 0 2 cbr 500 ------- 0 0.0 2.1 62 62
r 0.814 0 2 cbr 500 ------- 0 0.0 2.1 60 60
+ 0.815 0 2 cbr 500 ------- 0 0.0 2.1 63 63
- 0.815 0 2 cbr 500 ------- 0 0.0 2.1 63 63
r 0.819 0 2 cbr 500 ------- 0 0.0 2.1 61 61
+ 0.82 0 2 cbr 500 ------- 0 0.0 2.1 64 64
- 0.82 0 2 cbr 500 ------- 0 0.0 2.1 64 64
r 0.824 0 2 cbr 500 ------- 0 0.0 2.1 62 62
+ 0.825 0 2 cbr 500 ------- 0 0.0 2.1 65 65
- 0.825 0 2 cbr 500 ------- 0 0.0 2.1 65 65
r 0.829 0 2 cbr 500 ------- 0 0.0 2.1 63 63
+ 0.83 0 2 cbr 500 ------- 0 0.0 2.1 66 66
- 0.83 0 2 cbr 500 ------- 0 0.0 2.1 66 66
r 0.834 0 2 cbr 500 ------- 0 0.0 2.1 64 64
+ 0.835 0 2 cbr 500 ------- 0 0.0 2.1 67 67
- 0.835 0 2 cbr 500 ------- 0 0.0 2.1 67 67
r 0.839 0 2 cbr 500 ------- 0 0.0 2.1 65 65
+ 0.84 0 2 cbr 500 ------- 0 0.0 2.1 68 68
- 0.84 0 2 cbr 500 ------- 0 0.0 2.1 68 68
r 0.844 0 2 cbr 500 ------- 0 0.0 2.1 66 66
+ 0.845 0 2 cbr 500 ------- 0 0.0 2.1 69 69
- 0.845 0 2 cbr 500 ------- 0 0.0 2.1 69 69
r 0.849 0 2 cbr 500 ------- 0 0.0 2.1 67 67
+ 0.85 0 2 cbr 500 ------- 0 0.0 2.1 70 70
- 0.85 0 2 cbr 500 ------- 0 0.0 2.1 70 70
r 0.854 0 2 cbr 500 ------- 0 0.0 2.1 68 68
+ 0.855 0 2 cbr 500 ------- 0 0.0 2.1 71 71
- 0.855 0 2 cbr 500 ------- 0 0.0 2.1 71 71
r 0.859 0 2 cbr 500 ------- 0 0.0 2.1 69 69
+ 0.86 0 2 cbr 500 ------- 0 0.0 2.1 72 72
- 0.86 0 2 cbr 500 ------- 0 0.0 2.1 72 72
r 0.864 0 2 cbr 500 ------- 0 0.0 2.1 70 70
+ 0.865 0 2 cbr 500 ------- 0 0.0 2.1 73 73
- 0.865 0 2 cbr 500 ------- 0 0.0 2.1 73 73
r 0.869 0 2 cbr 500 ------- 0 0.0 2.1 71 71
+ 0.87 0 2 cbr 500 ------- 0 0.0 2.1 74 74
- 0.87 0 2 cbr 500 ------- 0 0.0 2.1 74 74
r 0.874 0 2 cbr 500 ------- 0 0.0 2.1 72 72
+ 0.875 0 2 cbr 500 ------- 0 0.0 2.1 75 75
- 0.875 0 2 cbr 500 ------- 0 0.0 2.1 75 75
r 0.879 0 2 cbr 500 ------- 0 0.0 2.1 73 73
+ 0.88 0 2 cbr 500 ------- 0 0.0 2.1 76 76
- 0.88 0 2 cbr 500 ------- 0 0.0 2.1 76 76
r 0.884 0 2 cbr 500 ------- 0 0.0 2.1 74 74
+ 0.885 0 2 cbr 500 ------- 0 0.0 2.1 77 77
- 0.885 0 2 cbr 500 ------- 0 0.0 2.1 77 77
r 0.889 0 2 cbr 500 ------- 0 0.0 2.1 75 75
+ 0.89 0 2 cbr 500 ------- 0 0.0 2.1 78 78
- 0.89 0 2 cbr 500 ------- 0 0.0 2.1 78 78
r 0.894 0 2 cbr 500 ------- 0 0.0 2.1 76 76
+ 0.895 0 2 cbr 500 ------- 0 0.0 2.1 79 79
- 0.895 0 2 cbr 500 ------- 0 0.0 2.1 79 79
r 0.899 0 2 cbr 500 ------- 0 0.0 2.1 77 77
+ 0.9 0 2 cbr 500 ------- 0 0.0 2.1 80 80
- 0.9 0 2 cbr 500 ------- 0 0.0 2.1 80 80
r 0.904 0 2 cbr 500 ------- 0 0.0 2.1 78 78
+ 0.905 0 2 cbr 500 ------- 0 0.0 2.1 81 81
- 0.905 0 2 cbr 500 ------- 0 0.0 2.1 81 81
r 0.909 0 2 cbr 500 ------- 0 0.0 2.1 79 79
+ 0.91 0 2 cbr 500 ------- 0 0.0 2.1 82 82
- 0.91 0 2 cbr 500 ------- 0 0.0 2.1 82 82
r 0.914 0 2 cbr 500 ------- 0 0.0 2.1 80 80
+ 0.915 0 2 cbr 500 ------- 0 0.0 2.1 83 83
- 0.915 0 2 cbr 500 ------- 0 0.0 2.1 83 83
r 0.919 0 2 cbr 500 ------- 0 0.0 2.1 81 81
+ 0.92 0 2 cbr 500 ------- 0 0.0 2.1 84 84
- 0.92 0 2 cbr 500 ------- 0 0.0 2.1 84 84
r 0.924 0 2 cbr 500 ------- 0 0.0 2.1 82 82
+ 0.925 0 2 cbr 500 ------- 0 0.0 2.1 85 85
- 0.925 0 2 cbr 500 ------- 0 0.0 2.1 85 85
r 0.929 0 2 cbr 500 ------- 0 0.0 2.1 83 83
+ 0.93 0 2 cbr 500 ------- 0 0.0 2.1 86 86
- 0.93 0 2 cbr 500 ------- 0 0.0 2.1 86 86
r 0.934 0 2 cbr 500 ------- 0 0.0 2.1 84 84
+ 0.935 0 2 cbr 500 ------- 0 0.0 2.1 87 87
- 0.935 0 2 cbr 500 ------- 0 0.0 2.1 87 87
r 0.939 0 2 cbr 500 ------- 0 0.0 2.1 85 85
+ 0.94 0 2 cbr 500 ------- 0 0.0 2.1 88 88
- 0.94 0 2 cbr 500 ------- 0 0.0 2.1 88 88
r 0.944 0 2 cbr 500 ------- 0 0.0 2.1 86 86
+ 0.945 0 2 cbr 500 ------- 0 0.0 2.1 89 89
- 0.945 0 2 cbr 500 ------- 0 0.0 2.1 89 89
r 0.949 0 2 cbr 500 ------- 0 0.0 2.1 87 87
+ 0.95 0 2 cbr 500 ------- 0 0.0 2.1 90 90
- 0.95 0 2 cbr 500 ------- 0 0.0 2.1 90 90
r 0.954 0 2 cbr 500 ------- 0 0.0 2.1 88 88
+ 0.955 0 2 cbr 500 ------- 0 0.0 2.1 91 91
- 0.955 0 2 cbr 500 ------- 0 0.0 2.1 91 91
r 0.959 0 2 cbr 500 ------- 0 0.0 2.1 89 89
+ 0.96 0 2 cbr 500 ------- 0 0.0 2.1 92 92
- 0.96 0 2 cbr 500 ------- 0 0.0 2.1 92 92
r 0.964 0 2 cbr 500 ------- 0 0.0 2.1 90 90
+ 0.965 0 2 cbr 500 ------- 0 0.0 2.1 93 93
- 0.965 0 2 cbr 500 ------- 0 0.0 2.1 93 93
r 0.969 0 2 cbr 500 ------- 0 0.0 2.1 91 91
+ 0.97 0 2 cbr 500 ------- 0 0.0 2.1 94 94
- 0.97 0 2 cbr 500 ------- 0 0.0 2.1 94 94
r 0.974 0 2 cbr 500 ------- 0 0.0 2.1 92 92
+ 0.975 0 2 cbr 500 ------- 0 0.0 2.1 95 95
- 0.975 0 2 cbr 500 ------- 0 0.0 2.1 95 95
r 0.979 0 2 cbr 500 ------- 0 0.0 2.1 93 93
+ 0.98 0 2 cbr 500 ------- 0 0.0 2.1 96 96
- 0.98 0 2 cbr 500 ------- 0 0.0 2.1 96 96
r 0.984 0 2 cbr 500 ------- 0 0.0 2.1 94 94
+ 0.985 0 2 cbr 500 ------- 0 0.0 2.1 97 97
- 0.985 0 2 cbr 500 ------- 0 0.0 2.1 97 97
r 0.989 0 2 cbr 500 ------- 0 0.0 2.1 95 95
+ 0.99 0 2 cbr 500 ------- 0 0.0 2.1 98 98
- 0.99 0 2 cbr 500 ------- 0 0.0 2.1 98 98
r 0.994 0 2 cbr 500 ------- 0 0.0 2.1 96 96
+ 0.995 0 2 cbr 500 ------- 0 0.0 2.1 99 99
- 0.995 0 2 cbr 500 ------- 0 0.0 2.1 99 99
r 0.999 0 2 cbr 500 ------- 0 0.0 2.1 97 97
+ 1 1 2 cbr 500 ------- 0 1.0 2.2 0 100
- 1 1 2 cbr 500 ------- 0 1.0 2.2 0 100
+ 1 0 2 cbr 500 ------- 0 0.0 2.1 100 101
- 1 0 2 cbr 500 ------- 0 0.0 2.1 100 101
r 1.004 0 2 cbr 500 ------- 0 0.0 2.1 98 98
+ 1.005 1 2 cbr 500 ------- 0 1.0 2.2 1 102
- 1.005 1 2 cbr 500 ------- 0 1.0 2.2 1 102
+ 1.005 0 2 cbr 500 ------- 0 0.0 2.1 101 103
- 1.005 0 2 cbr 500 ------- 0 0.0 2.1 101 103
r 1.009 0 2 cbr 500 ------- 0 0.0 2.1 99 99
+ 1.01 1 2 cbr 500 ------- 0 1.0 2.2 2 104
- 1.01 1 2 cbr 500 ------- 0 1.0 2.2 2 104
+ 1.01 0 2 cbr 500 ------- 0 0.0 2.1 102 105
- 1.01 0 2 cbr 500 ------- 0 0.0 2.1 102 105
r 1.014 1 2 cbr 500 ------- 0 1.0 2.2 0 100
r 1.014 0 2 cbr 500 ------- 0 0.0 2.1 100 101
+ 1.015 1 2 cbr 500 ------- 0 1.0 2.2 3 106
- 1.015 1 2 cbr 500 ------- 0 1.0 2.2 3 106
+ 1.015 0 2 cbr 500 ------- 0 0.0 2.1 103 107
- 1.015 0 2 cbr 500 ------- 0 0.0 2.1 103 107
r 1.019 1 2 cbr 500 ------- 0 1.0 2.2 1 102
r 1.019 0 2 cbr 500 ------- 0 0.0 2.1 101 103
+ 1.02 1 2 cbr 500 ------- 0 1.0 2.2 4 108
- 1.02 1 2 cbr 500 ------- 0 1.0 2.2 4 108
+ 1.02 0 2 cbr 500 ------- 0 0.0 2.1 104 109
- 1.02 0 2 cbr 500 ------- 0 0.0 2.1 104 109
r 1.024 1 2 cbr 500 ------- 0 1.0 2.2 2 104
r 1.024 0 2 cbr 500 ------- 0 0.0 2.1 102 105
+ 1.025 1 2 cbr 500 ------- 0 1.0 2.2 5 110
- 1.025 1 2 cbr 500 ------- 0 1.0 2.2 5 110
+ 1.025 0 2 cbr 500 ------- 0 0.0 2.1 105 111
- 1.025 0 2 cbr 500 ------- 0 0.0 2.1 105 111
r 1.029 1 2 cbr 500 ------- 0 1.0 2.2 3 106
r 1.029 0 2 cbr 500 ------- 0 0.0 2.1 103 107
+ 1.03 1 2 cbr 500 ------- 0 1.0 2.2 6 112
- 1.03 1 2 cbr 500 ------- 0 1.0 2.2 6 112
+ 1.03 0 2 cbr 500 ------- 0 0.0 2.1 106 113
- 1.03 0 2 cbr 500 ------- 0 0.0 2.1 106 113
r 1.034 1 2 cbr 500 ------- 0 1.0 2.2 4 108
r 1.034 0 2 cbr 500 ------- 0 0.0 2.1 104 109
+ 1.035 1 2 cbr 500 ------- 0 1.0 2.2 7 114
- 1.035 1 2 cbr 500 ------- 0 1.0 2.2 7 114
+ 1.035 0 2 cbr 500 ------- 0 0.0 2.1 107 115
- 1.035 0 2 cbr 500 ------- 0 0.0 2.1 107 115
r 1.039 1 2 cbr 500 ------- 0 1.0 2.2 5 110
r 1.039 0 2 cbr 500 ------- 0 0.0 2.1 105 111
+ 1.04 1 2 cbr 500 ------- 0 1.0 2.2 8 116
- 1.04 1 2 cbr 500 ------- 0 1.0 2.2 8 116
+ 1.04 0 2 cbr 500 ------- 0 0.0 2.1 108 117
- 1.04 0 2 cbr 500 ------- 0 0.0 2.1 108 117
r 1.044 1 2 cbr 500 ------- 0 1.0 2.2 6 112
r 1.044 0 2 cbr 500 ------- 0 0.0 2.1 106 113
+ 1.045 1 2 cbr 500 ------- 0 1.0 2.2 9 118
- 1.045 1 2 cbr 500 ------- 0 1.0 2.2 9 118
+ 1.045 0 2 cbr 500 ------- 0 0.0 2.1 109 119
- 1.045 0 2 cbr 500 ------- 0 0.0 2.1 109 119
r 1.049 1 2 cbr 500 ------- 0 1.0 2.2 7 114
r 1.049 0 2 cbr 500 ------- 0 0.0 2.1 107 115
+ 1.05 1 2 cbr 500 ------- 0 1.0 2.2 10 120
- 1.05 1 2 cbr 500 ------- 0 1.0 2.2 10 120
+ 1.05 0 2 cbr 500 ------- 0 0.0 2.1 110 121
- 1.05 0 2 cbr 500 ------- 0 0.0 2.1 110 121
r 1.054 1 2 cbr 500 ------- 0 1.0 2.2 8 116
r 1.054 0 2 cbr 500 ------- 0 0.0 2.1 108 117
+ 1.055 1 2 cbr 500 ------- 0 1.0 2.2 11 122
- 1.055 1 2 cbr 500 ------- 0 1.0 2.2 11 122
+ 1.055 0 2 cbr 500 ------- 0 0.0 2.1 111 123
- 1.055 0 2 cbr 500 ------- 0 0.0 2.1 111 123
r 1.059 1 2 cbr 500 ------- 0 1.0 2.2 9 118
r 1.059 0 2 cbr 500 ------- 0 0.0 2.1 109 119
+ 1.06 1 2 cbr 500 ------- 0 1.0 2.2 12 124
- 1.06 1 2 cbr 500 ------- 0 1.0 2.2 12 124
+ 1.06 0 2 cbr 500 ------- 0 0.0 2.1 112 125
- 1.06 0 2 cbr 500 ------- 0 0.0 2.1 112 125
r 1.064 1 2 cbr 500 ------- 0 1.0 2.2 10 120
r 1.064 0 2 cbr 500 ------- 0 0.0 2.1 110 121
+ 1.065 1 2 cbr 500 ------- 0 1.0 2.2 13 126
- 1.065 1 2 cbr 500 ------- 0 1.0 2.2 13 126
+ 1.065 0 2 cbr 500 ------- 0 0.0 2.1 113 127
- 1.065 0 2 cbr 500 ------- 0 0.0 2.1 113 127
r 1.069 1 2 cbr 500 ------- 0 1.0 2.2 11 122
r 1.069 0 2 cbr 500 ------- 0 0.0 2.1 111 123
+ 1.07 1 2 cbr 500 ------- 0 1.0 2.2 14 128
- 1.07 1 2 cbr 500 ------- 0 1.0 2.2 14 128
+ 1.07 0 2 cbr 500 ------- 0 0.0 2.1 114 129
- 1.07 0 2 cbr 500 ------- 0 0.0 2.1 114 129
r 1.074 1 2 cbr 500 ------- 0 1.0 2.2 12 124
r 1.074 0 2 cbr 500 ------- 0 0.0 2.1 112 125
+ 1.075 1 2 cbr 500 ------- 0 1.0 2.2 15 130
- 1.075 1 2 cbr 500 ------- 0 1.0 2.2 15 130
+ 1.075 0 2 cbr 500 ------- 0 0.0 2.1 115 131
- 1.075 0 2 cbr 500 ------- 0 0.0 2.1 115 131
r 1.079 1 2 cbr 500 ------- 0 1.0 2.2 13 126
r 1.079 0 2 cbr 500 ------- 0 0.0 2.1 113 127
+ 1.08 1 2 cbr 500 ------- 0 1.0 2.2 16 132
- 1.08 1 2 cbr 500 ------- 0 1.0 2.2 16 132
+ 1.08 0 2 cbr 500 ------- 0 0.0 2.1 116 133
- 1.08 0 2 cbr 500 ------- 0 0.0 2.1 116 133
r 1.084 1 2 cbr 500 ------- 0 1.0 2.2 14 128
r 1.084 0 2 cbr 500 ------- 0 0.0 2.1 114 129
+ 1.085 1 2 cbr 500 ------- 0 1.0 2.2 17 134
- 1.085 1 2 cbr 500 ------- 0 1.0 2.2 17 134
+ 1.085 0 2 cbr 500 ------- 0 0.0 2.1 117 135
- 1.085 0 2 cbr 500 ------- 0 0.0 2.1 117 135
r 1.089 1 2 cbr 500 ------- 0 1.0 2.2 15 130
r 1.089 0 2 cbr 500 ------- 0 0.0 2.1 115 131
+ 1.09 1 2 cbr 500 ------- 0 1.0 2.2 18 136
- 1.09 1 2 cbr 500 ------- 0 1.0 2.2 18 136
+ 1.09 0 2 cbr 500 ------- 0 0.0 2.1 118 137
- 1.09 0 2 cbr 500 ------- 0 0.0 2.1 118 137
r 1.094 1 2 cbr 500 ------- 0 1.0 2.2 16 132
r 1.094 0 2 cbr 500 ------- 0 0.0 2.1 116 133
+ 1.095 1 2 cbr 500 ------- 0 1.0 2.2 19 138
- 1.095 1 2 cbr 500 ------- 0 1.0 2.2 19 138
+ 1.095 0 2 cbr 500 ------- 0 0.0 2.1 119 139
- 1.095 0 2 cbr 500 ------- 0 0.0 2.1 119 139
r 1.099 1 2 cbr 500 ------- 0 1.0 2.2 17 134
r 1.099 0 2 cbr 500 ------- 0 0.0 2.1 117 135
+ 1.1 1 2 cbr 500 ------- 0 1.0 2.2 20 140
- 1.1 1 2 cbr 500 ------- 0 1.0 2.2 20 140
+ 1.1 0 2 cbr 500 ------- 0 0.0 2.1 120 141
- 1.1 0 2 cbr 500 ------- 0 0.0 2.1 120 141
r 1.104 1 2 cbr 500 ------- 0 1.0 2.2 18 136
r 1.104 0 2 cbr 500 ------- 0 0.0 2.1 118 137
+ 1.105 1 2 cbr 500 ------- 0 1.0 2.2 21 142
- 1.105 1 2 cbr 500 ------- 0 1.0 2.2 21 142
+ 1.105 0 2 cbr 500 ------- 0 0.0 2.1 121 143
- 1.105 0 2 cbr 500 ------- 0 0.0 2.1 121 143
r 1.109 1 2 cbr 500 ------- 0 1.0 2.2 19 138
r 1.109 0 2 cbr 500 ------- 0 0.0 2.1 119 139
+ 1.11 1 2 cbr 500 ------- 0 1.0 2.2 22 144
- 1.11 1 2 cbr 500 ------- 0 1.0 2.2 22 144
+ 1.11 0 2 cbr 500 ------- 0 0.0 2.1 122 145
- 1.11 0 2 cbr 500 ------- 0 0.0 2.1 122 145
r 1.114 1 2 cbr 500 ------- 0 1.0 2.2 20 140
r 1.114 0 2 cbr 500 ------- 0 0.0 2.1 120 141
+ 1.115 1 2 cbr 500 ------- 0 1.0 2.2 23 146
- 1.115 1 2 cbr 500 ------- 0 1.0 2.2 23 146
+ 1.115 0 2 cbr 500 ------- 0 0.0 2.1 123 147
- 1.115 0 2 cbr 500 ------- 0 0.0 2.1 123 147
r 1.119 1 2 cbr 500 ------- 0 1.0 2.2 21 142
r 1.119 0 2 cbr 500 ------- 0 0.0 2.1 121 143
+ 1.12 1 2 cbr 500 ------- 0 1.0 2.2 24 148
- 1.12 1 2 cbr 500 ------- 0 1.0 2.2 24 148
+ 1.12 0 2 cbr 500 ------- 0 0.0 2.1 124 149
- 1.12 0 2 cbr 500 ------- 0 0.0 2.1 124 149
r 1.124 1 2 cbr 500 ------- 0 1.0 2.2 22 144
r 1.124 0 2 cbr 500 ------- 0 0.0 2.1 122 145
+ 1.125 1 2 cbr 500 ------- 0 1.0 2.2 25 150
- 1.125 1 2 cbr 500 ------- 0 1.0 2.2 25 150
+ 1.125 0 2 cbr 500 ------- 0 0.0 2.1 125 151
- 1.125 0 2 cbr 500 ------- 0 0.0 2.1 125 151
r 1.129 1 2 cbr 500 ------- 0 1.0 2.2 23 146
r 1.129 0 2 cbr 500 ------- 0 0.0 2.1 123 147
+ 1.13 1 2 cbr 500 ------- 0 1.0 2.2 26 152
- 1.13 1 2 cbr 500 ------- 0 1.0 2.2 26 152
+ 1.13 0 2 cbr 500 ------- 0 0.0 2.1 126 153
- 1.13 0 2 cbr 500 ------- 0 0.0 2.1 126 153
r 1.134 1 2 cbr 500 ------- 0 1.0 2.2 24 148
r 1.134 0 2 cbr 500 ------- 0 0.0 2.1 124 149
+ 1.135 1 2 cbr 500 ------- 0 1.0 2.2 27 154
- 1.135 1 2 cbr 500 ------- 0 1.0 2.2 27 154
+ 1.135 0 2 cbr 500 ------- 0 0.0 2.1 127 155
- 1.135 0 2 cbr 500 ------- 0 0.0 2.1 127 155
r 1.139 1 2 cbr 500 ------- 0 1.0 2.2 25 150
r 1.139 0 2 cbr 500 ------- 0 0.0 2.1 125 151
+ 1.14 1 2 cbr 500 ------- 0 1.0 2.2 28 156
- 1.14 1 2 cbr 500 ------- 0 1.0 2.2 28 156
+ 1.14 0 2 cbr 500 ------- 0 0.0 2.1 128 157
- 1.14 0 2 cbr 500 ------- 0 0.0 2.1 128 157
r 1.144 1 2 cbr 500 ------- 0 1.0 2.2 26 152
r 1.144 0 2 cbr 500 ------- 0 0.0 2.1 126 153
+ 1.145 1 2 cbr 500 ------- 0 1.0 2.2 29 158
- 1.145 1 2 cbr 500 ------- 0 1.0 2.2 29 158
+ 1.145 0 2 cbr 500 ------- 0 0.0 2.1 129 159
- 1.145 0 2 cbr 500 ------- 0 0.0 2.1 129 159
r 1.149 1 2 cbr 500 ------- 0 1.0 2.2 27 154
r 1.149 0 2 cbr 500 ------- 0 0.0 2.1 127 155
+ 1.15 1 2 cbr 500 ------- 0 1.0 2.2 30 160
- 1.15 1 2 cbr 500 ------- 0 1.0 2.2 30 160
+ 1.15 0 2 cbr 500 ------- 0 0.0 2.1 130 161
- 1.15 0 2 cbr 500 ------- 0 0.0 2.1 130 161
r 1.154 1 2 cbr 500 ------- 0 1.0 2.2 28 156
r 1.154 0 2 cbr 500 ------- 0 0.0 2.1 128 157
+ 1.155 1 2 cbr 500 ------- 0 1.0 2.2 31 162
- 1.155 1 2 cbr 500 ------- 0 1.0 2.2 31 162
+ 1.155 0 2 cbr 500 ------- 0 0.0 2.1 131 163
- 1.155 0 2 cbr 500 ------- 0 0.0 2.1 131 163
r 1.159 1 2 cbr 500 ------- 0 1.0 2.2 29 158
r 1.159 0 2 cbr 500 ------- 0 0.0 2.1 129 159
+ 1.16 1 2 cbr 500 ------- 0 1.0 2.2 32 164
- 1.16 1 2 cbr 500 ------- 0 1.0 2.2 32 164
+ 1.16 0 2 cbr 500 ------- 0 0.0 2.1 132 165
- 1.16 0 2 cbr 500 ------- 0 0.0 2.1 132 165
r 1.164 1 2 cbr 500 ------- 0 1.0 2.2 30 160
r 1.164 0 2 cbr 500 ------- 0 0.0 2.1 130 161
+ 1.165 1 2 cbr 500 ------- 0 1.0 2.2 33 166
- 1.165 1 2 cbr 500 ------- 0 1.0 2.2 33 166
+ 1.165 0 2 cbr 500 ------- 0 0.0 2.1 133 167
- 1.165 0 2 cbr 500 ------- 0 0.0 2.1 133 167
r 1.169 1 2 cbr 500 ------- 0 1.0 2.2 31 162
r 1.169 0 2 cbr 500 ------- 0 0.0 2.1 131 163
+ 1.17 1 2 cbr 500 ------- 0 1.0 2.2 34 168
- 1.17 1 2 cbr 500 ------- 0 1.0 2.2 34 168
+ 1.17 0 2 cbr 500 ------- 0 0.0 2.1 134 169
- 1.17 0 2 cbr 500 ------- 0 0.0 2.1 134 169
r 1.174 1 2 cbr 500 ------- 0 1.0 2.2 32 164
r 1.174 0 2 cbr 500 ------- 0 0.0 2.1 132 165
+ 1.175 1 2 cbr 500 ------- 0 1.0 2.2 35 170
- 1.175 1 2 cbr 500 ------- 0 1.0 2.2 35 170
+ 1.175 0 2 cbr 500 ------- 0 0.0 2.1 135 171
- 1.175 0 2 cbr 500 ------- 0 0.0 2.1 135 171
r 1.179 1 2 cbr 500 ------- 0 1.0 2.2 33 166
r 1.179 0 2 cbr 500 ------- 0 0.0 2.1 133 167
+ 1.18 1 2 cbr 500 ------- 0 1.0 2.2 36 172
- 1.18 1 2 cbr 500 ------- 0 1.0 2.2 36 172
+ 1.18 0 2 cbr 500 ------- 0 0.0 2.1 136 173
- 1.18 0 2 cbr 500 ------- 0 0.0 2.1 136 173
r 1.184 1 2 cbr 500 ------- 0 1.0 2.2 34 168
r 1.184 0 2 cbr 500 ------- 0 0.0 2.1 134 169
+ 1.185 1 2 cbr 500 ------- 0 1.0 2.2 37 174
- 1.185 1 2 cbr 500 ------- 0 1.0 2.2 37 174
+ 1.185 0 2 cbr 500 ------- 0 0.0 2.1 137 175
- 1.185 0 2 cbr 500 ------- 0 0.0 2.1 137 175
r 1.189 1 2 cbr 500 ------- 0 1.0 2.2 35 170
r 1.189 0 2 cbr 500 ------- 0 0.0 2.1 135 171
+ 1.19 1 2 cbr 500 ------- 0 1.0 2.2 38 176
- 1.19 1 2 cbr 500 ------- 0 1.0 2.2 38 176
+ 1.19 0 2 cbr 500 ------- 0 0.0 2.1 138 177
- 1.19 0 2 cbr 500 ------- 0 0.0 2.1 138 177
r 1.194 1 2 cbr 500 ------- 0 1.0 2.2 36 172
r 1.194 0 2 cbr 500 ------- 0 0.0 2.1 136 173
+ 1.195 1 2 cbr 500 ------- 0 1.0 2.2 39 178
- 1.195 1 2 cbr 500 ------- 0 1.0 2.2 39 178
+ 1.195 0 2 cbr 500 ------- 0 0.0 2.1 139 179
- 1.195 0 2 cbr 500 ------- 0 0.0 2.1 139 179
r 1.199 1 2 cbr 500 ------- 0 1.0 2.2 37 174
r 1.199 0 2 cbr 500 ------- 0 0.0 2.1 137 175
+ 1.2 1 2 cbr 500 ------- 0 1.0 2.2 40 180
- 1.2 1 2 cbr 500 ------- 0 1.0 2.2 40 180
+ 1.2 0 2 cbr 500 ------- 0 0.0 2.1 140 181
- 1.2 0 2 cbr 500 ------- 0 0.0 2.1 140 181
r 1.204 1 2 cbr 500 ------- 0 1.0 2.2 38 176
r 1.204 0 2 cbr 500 ------- 0 0.0 2.1 138 177
+ 1.205 1 2 cbr 500 ------- 0 1.0 2.2 41 182
- 1.205 1 2 cbr 500 ------- 0 1.0 2.2 41 182
+ 1.205 0 2 cbr 500 ------- 0 0.0 2.1 141 183
- 1.205 0 2 cbr 500 ------- 0 0.0 2.1 141 183
r 1.209 1 2 cbr 500 ------- 0 1.0 2.2 39 178
r 1.209 0 2 cbr 500 ------- 0 0.0 2.1 139 179
+ 1.21 1 2 cbr 500 ------- 0 1.0 2.2 42 184
- 1.21 1 2 cbr 500 ------- 0 1.0 2.2 42 184
+ 1.21 0 2 cbr 500 ------- 0 0.0 2.1 142 185
- 1.21 0 2 cbr 500 ------- 0 0.0 2.1 142 185
r 1.214 1 2 cbr 500 ------- 0 1.0 2.2 40 180
r 1.214 0 2 cbr 500 ------- 0 0.0 2.1 140 181
+ 1.215 1 2 cbr 500 ------- 0 1.0 2.2 43 186
- 1.215 1 2 cbr 500 ------- 0 1.0 2.2 43 186
+ 1.215 0 2 cbr 500 ------- 0 0.0 2.1 143 187
- 1.215 0 2 cbr 500 ------- 0 0.0 2.1 143 187
r 1.219 1 2 cbr 500 ------- 0 1.0 2.2 41 182
r 1.219 0 2 cbr 500 ------- 0 0.0 2.1 141 183
+ 1.22 1 2 cbr 500 ------- 0 1.0 2.2 44 188
- 1.22 1 2 cbr 500 ------- 0 1.0 2.2 44 188
+ 1.22 0 2 cbr 500 ------- 0 0.0 2.1 144 189
- 1.22 0 2 cbr 500 ------- 0 0.0 2.1 144 189
r 1.224 1 2 cbr 500 ------- 0 1.0 2.2 42 184
r 1.224 0 2 cbr 500 ------- 0 0.0 2.1 142 185
+ 1.225 1 2 cbr 500 ------- 0 1.0 2.2 45 190
- 1.225 1 2 cbr 500 ------- 0 1.0 2.2 45 190
+ 1.225 0 2 cbr 500 ------- 0 0.0 2.1 145 191
- 1.225 0 2 cbr 500 ------- 0 0.0 2.1 145 191
r 1.229 1 2 cbr 500 ------- 0 1.0 2.2 43 186
r 1.229 0 2 cbr 500 ------- 0 0.0 2.1 143 187
+ 1.23 1 2 cbr 500 ------- 0 1.0 2.2 46 192
- 1.23 1 2 cbr 500 ------- 0 1.0 2.2 46 192
+ 1.23 0 2 cbr 500 ------- 0 0.0 2.1 146 193
- 1.23 0 2 cbr 500 ------- 0 0.0 2.1 146 193
r 1.234 1 2 cbr 500 ------- 0 1.0 2.2 44 188
r 1.234 0 2 cbr 500 ------- 0 0.0 2.1 144 189
+ 1.235 1 2 cbr 500 ------- 0 1.0 2.2 47 194
- 1.235 1 2 cbr 500 ------- 0 1.0 2.2 47 194
+ 1.235 0 2 cbr 500 ------- 0 0.0 2.1 147 195
- 1.235 0 2 cbr 500 ------- 0 0.0 2.1 147 195
r 1.239 1 2 cbr 500 ------- 0 1.0 2.2 45 190
r 1.239 0 2 cbr 500 ------- 0 0.0 2.1 145 191
+ 1.24 1 2 cbr 500 ------- 0 1.0 2.2 48 196
- 1.24 1 2 cbr 500 ------- 0 1.0 2.2 48 196
+ 1.24 0 2 cbr 500 ------- 0 0.0 2.1 148 197
- 1.24 0 2 cbr 500 ------- 0 0.0 2.1 148 197
r 1.244 1 2 cbr 500 ------- 0 1.0 2.2 46 192
r 1.244 0 2 cbr 500 ------- 0 0.0 2.1 146 193
+ 1.245 1 2 cbr 500 ------- 0 1.0 2.2 49 198
- 1.245 1 2 cbr 500 ------- 0 1.0 2.2 49 198
+ 1.245 0 2 cbr 500 ------- 0 0.0 2.1 149 199
- 1.245 0 2 cbr 500 ------- 0 0.0 2.1 149 199
r 1.249 1 2 cbr 500 ------- 0 1.0 2.2 47 194
r 1.249 0 2 cbr 500 ------- 0 0.0 2.1 147 195
+ 1.25 1 2 cbr 500 ------- 0 1.0 2.2 50 200
- 1.25 1 2 cbr 500 ------- 0 1.0 2.2 50 200
+ 1.25 0 2 cbr 500 ------- 0 0.0 2.1 150 201
- 1.25 0 2 cbr 500 ------- 0 0.0 2.1 150 201
r 1.254 1 2 cbr 500 ------- 0 1.0 2.2 48 196
r 1.254 0 2 cbr 500 ------- 0 0.0 2.1 148 197
+ 1.255 1 2 cbr 500 ------- 0 1.0 2.2 51 202
- 1.255 1 2 cbr 500 ------- 0 1.0 2.2 51 202
+ 1.255 0 2 cbr 500 ------- 0 0.0 2.1 151 203
- 1.255 0 2 cbr 500 ------- 0 0.0 2.1 151 203
r 1.259 1 2 cbr 500 ------- 0 1.0 2.2 49 198
r 1.259 0 2 cbr 500 ------- 0 0.0 2.1 149 199
+ 1.26 1 2 cbr 500 ------- 0 1.0 2.2 52 204
- 1.26 1 2 cbr 500 ------- 0 1.0 2.2 52 204
+ 1.26 0 2 cbr 500 ------- 0 0.0 2.1 152 205
- 1.26 0 2 cbr 500 ------- 0 0.0 2.1 152 205
r 1.264 1 2 cbr 500 ------- 0 1.0 2.2 50 200
r 1.264 0 2 cbr 500 ------- 0 0.0 2.1 150 201
+ 1.265 1 2 cbr 500 ------- 0 1.0 2.2 53 206
- 1.265 1 2 cbr 500 ------- 0 1.0 2.2 53 206
+ 1.265 0 2 cbr 500 ------- 0 0.0 2.1 153 207
- 1.265 0 2 cbr 500 ------- 0 0.0 2.1 153 207
r 1.269 1 2 cbr 500 ------- 0 1.0 2.2 51 202
r 1.269 0 2 cbr 500 ------- 0 0.0 2.1 151 203
+ 1.27 1 2 cbr 500 ------- 0 1.0 2.2 54 208
- 1.27 1 2 cbr 500 ------- 0 1.0 2.2 54 208
+ 1.27 0 2 cbr 500 ------- 0 0.0 2.1 154 209
- 1.27 0 2 cbr 500 ------- 0 0.0 2.1 154 209
r 1.274 1 2 cbr 500 ------- 0 1.0 2.2 52 204
r 1.274 0 2 cbr 500 ------- 0 0.0 2.1 152 205
+ 1.275 1 2 cbr 500 ------- 0 1.0 2.2 55 210
- 1.275 1 2 cbr 500 ------- 0 1.0 2.2 55 210
+ 1.275 0 2 cbr 500 ------- 0 0.0 2.1 155 211
- 1.275 0 2 cbr 500 ------- 0 0.0 2.1 155 211
r 1.279 1 2 cbr 500 ------- 0 1.0 2.2 53 206
r 1.279 0 2 cbr 500 ------- 0 0.0 2.1 153 207
+ 1.28 1 2 cbr 500 ------- 0 1.0 2.2 56 212
- 1.28 1 2 cbr 500 ------- 0 1.0 2.2 56 212
+ 1.28 0 2 cbr 500 ------- 0 0.0 2.1 156 213
- 1.28 0 2 cbr 500 ------- 0 0.0 2.1 156 213
r 1.284 1 2 cbr 500 ------- 0 1.0 2.2 54 208
r 1.284 0 2 cbr 500 ------- 0 0.0 2.1 154 209
+ 1.285 1 2 cbr 500 ------- 0 1.0 2.2 57 214
- 1.285 1 2 cbr 500 ------- 0 1.0 2.2 57 214
+ 1.285 0 2 cbr 500 ------- 0 0.0 2.1 157 215
- 1.285 0 2 cbr 500 ------- 0 0.0 2.1 157 215
r 1.289 1 2 cbr 500 ------- 0 1.0 2.2 55 210
r 1.289 0 2 cbr 500 ------- 0 0.0 2.1 155 211
+ 1.29 1 2 cbr 500 ------- 0 1.0 2.2 58 216
- 1.29 1 2 cbr 500 ------- 0 1.0 2.2 58 216
+ 1.29 0 2 cbr 500 ------- 0 0.0 2.1 158 217
- 1.29 0 2 cbr 500 ------- 0 0.0 2.1 158 217
r 1.294 1 2 cbr 500 ------- 0 1.0 2.2 56 212
r 1.294 0 2 cbr 500 ------- 0 0.0 2.1 156 213
+ 1.295 1 2 cbr 500 ------- 0 1.0 2.2 59 218
- 1.295 1 2 cbr 500 ------- 0 1.0 2.2 59 218
+ 1.295 0 2 cbr 500 ------- 0 0.0 2.1 159 219
- 1.295 0 2 cbr 500 ------- 0 0.0 2.1 159 219
r 1.299 1 2 cbr 500 ------- 0 1.0 2.2 57 214
r 1.299 0 2 cbr 500 ------- 0 0.0 2.1 157 215
+ 1.3 1 2 cbr 500 ------- 0 1.0 2.2 60 220
- 1.3 1 2 cbr 500 ------- 0 1.0 2.2 60 220
+ 1.3 0 2 cbr 500 ------- 0 0.0 2.1 160 221
- 1.3 0 2 cbr 500 ------- 0 0.0 2.1 160 221
r 1.304 1 2 cbr 500 ------- 0 1.0 2.2 58 216
r 1.304 0 2 cbr 500 ------- 0 0.0 2.1 158 217
+ 1.305 1 2 cbr 500 ------- 0 1.0 2.2 61 222
- 1.305 1 2 cbr 500 ------- 0 1.0 2.2 61 222
+ 1.305 0 2 cbr 500 ------- 0 0.0 2.1 161 223
- 1.305 0 2 cbr 500 ------- 0 0.0 2.1 161 223
r 1.309 1 2 cbr 500 ------- 0 1.0 2.2 59 218
r 1.309 0 2 cbr 500 ------- 0 0.0 2.1 159 219
+ 1.31 1 2 cbr 500 ------- 0 1.0 2.2 62 224
- 1.31 1 2 cbr 500 ------- 0 1.0 2.2 62 224
+ 1.31 0 2 cbr 500 ------- 0 0.0 2.1 162 225
- 1.31 0 2 cbr 500 ------- 0 0.0 2.1 162 225
r 1.314 1 2 cbr 500 ------- 0 1.0 2.2 60 220
r 1.314 0 2 cbr 500 ------- 0 0.0 2.1 160 221
+ 1.315 1 2 cbr 500 ------- 0 1.0 2.2 63 226
- 1.315 1 2 cbr 500 ------- 0 1.0 2.2 63 226